           3
 total energy = LJtot + Ttot = -0.92393925034581303      +   0.0000000000000000      = -0.92393925034581303     
Ar      -1.500000      -1.000000       0.000000
Ar       2.000000      -1.000000       0.000000
Ar       0.000000       2.000000       0.000000
           3
          10 total energy  = LJtot + Ttot =  -1.0560352543262859      +  0.13206239004904238      = -0.92397286427724346     
Ar      -1.504065      -1.004119       0.000000
Ar       2.002549      -1.000815       0.000000
Ar       0.001516       2.004935       0.000000
           3
          20 total energy  = LJtot + Ttot =  -1.4017808556167384      +  0.47773255221119193      = -0.92404830340554645     
Ar      -1.515878      -1.016032       0.000000
Ar       2.009992      -1.003194       0.000000
Ar       0.005887       2.019227       0.000000
           3
          30 total energy  = LJtot + Ttot =  -1.8443796423220560      +  0.92026188654383412      = -0.92411775577822186     
Ar      -1.534419      -1.034564       0.000000
Ar       2.021772      -1.006951       0.000000
Ar       0.012647       2.041516       0.000000
           3
          40 total energy  = LJtot + Ttot =  -2.2687385670594704      +   1.3445846673905857      = -0.92415389966888473     
Ar      -1.558308      -1.058181       0.000000
Ar       2.037103      -1.011824       0.000000
Ar       0.021205       2.070005       0.000000
           3
          50 total energy  = LJtot + Ttot =  -2.6044507522112870      +   1.6802928278983402      = -0.92415792431294674     
Ar      -1.586106      -1.085354       0.000000
Ar       2.055118      -1.017519       0.000000
Ar       0.030988       2.102873       0.000000
           3
          60 total energy  = LJtot + Ttot =  -2.8288447224030664      +   1.9047013337924639      = -0.92414338861060252     
Ar      -1.616517      -1.114782       0.000000
Ar       2.074984      -1.023754       0.000000
Ar       0.041533       2.138536       0.000000
           3
          70 total energy  = LJtot + Ttot =  -2.9498766224637056      +   2.0257539910614226      = -0.92412263140228301     
Ar      -1.648481      -1.145468       0.000000
Ar       2.095974      -1.030276       0.000000
Ar       0.052507       2.175744       0.000000
           3
          80 total energy  = LJtot + Ttot =  -2.9884573173112425      +   2.0643546019170191      = -0.92410271539422340     
Ar      -1.681185      -1.176697       0.000000
Ar       2.117491      -1.036876       0.000000
Ar       0.063694       2.213573       0.000000
           3
          90 total energy  = LJtot + Ttot =  -2.9673889318886695      +   2.0433025058269396      = -0.92408642606172986     
Ar      -1.714032      -1.207984       0.000000
Ar       2.139068      -1.043385       0.000000
Ar       0.074963       2.251369       0.000000
           3
         100 total energy  = LJtot + Ttot =  -2.9063744400894200      +   1.9823002413169948      = -0.92407419877242525     
Ar      -1.746600      -1.239014       0.000000
Ar       2.160355      -1.049674       0.000000
Ar       0.086245       2.288688       0.000000
           3
         110 total energy  = LJtot + Ttot =  -2.8206367369241105      +   1.8965712412042257      = -0.92406549571988483     
Ar      -1.778599      -1.269589       0.000000
Ar       2.181092      -1.055644       0.000000
Ar       0.097508       2.325233       0.000000
           3
         120 total energy  = LJtot + Ttot =  -2.7211854391613146      +   1.7971259110792954      = -0.92405952808201919     
Ar      -1.809839      -1.299594       0.000000
Ar       2.201095      -1.061222       0.000000
Ar       0.108743       2.360816       0.000000
           3
         130 total energy  = LJtot + Ttot =  -2.6156302582038897      +   1.6915746984715652      = -0.92405555973232456     
Ar      -1.840195      -1.328966       0.000000
Ar       2.220238      -1.066356       0.000000
Ar       0.119958       2.395322       0.000000
           3
         140 total energy  = LJtot + Ttot =  -2.5090406727960866      +   1.5849876722310998      = -0.92405300056498674     
Ar      -1.869596      -1.357679       0.000000
Ar       2.238433      -1.071008       0.000000
Ar       0.131163       2.428687       0.000000
           3
         150 total energy  = LJtot + Ttot =  -2.4046718003125491      +   1.4806203893291627      = -0.92405141098338639     
Ar      -1.898003      -1.385729       0.000000
Ar       2.255627      -1.075152       0.000000
Ar       0.142377       2.460881       0.000000
           3
         160 total energy  = LJtot + Ttot =  -2.3045204645929078      +   1.3804699880273612      = -0.92405047656554662     
Ar      -1.925401      -1.413124       0.000000
Ar       2.271787      -1.078772       0.000000
Ar       0.153614       2.491896       0.000000
           3
         170 total energy  = LJtot + Ttot =  -2.2097297261013860      +   1.2856797482702040      = -0.92404997783118192     
Ar      -1.951792      -1.439883       0.000000
Ar       2.286899      -1.081857       0.000000
Ar       0.164894       2.521740       0.000000
           3
         180 total energy  = LJtot + Ttot =  -2.1208743579123195      +   1.1968245939775299      = -0.92404976393478955     
Ar      -1.977188      -1.466030       0.000000
Ar       2.300958      -1.084401       0.000000
Ar       0.176230       2.550431       0.000000
           3
         190 total energy  = LJtot + Ttot =  -2.0381584537429078      +   1.1141087214293126      = -0.92404973231359522     
Ar      -2.001608      -1.491588       0.000000
Ar       2.313969      -1.086402       0.000000
Ar       0.187639       2.577991       0.000000
           3
         200 total energy  = LJtot + Ttot =  -1.9615503940229195      +   1.0375005801974118      = -0.92404981382550777     
Ar      -2.025075      -1.516586       0.000000
Ar       2.325942      -1.087860       0.000000
Ar       0.199133       2.604446       0.000000
           3
         210 total energy  = LJtot + Ttot =  -1.8908740597995015      +  0.96682409756537857      = -0.92404996223412295     
Ar      -2.047616      -1.541049       0.000000
Ar       2.336892      -1.088776       0.000000
Ar       0.210724       2.629825       0.000000
           3
         220 total energy  = LJtot + Ttot =  -1.8258698729619878      +  0.90181972605899574      = -0.92405014690299203     
Ar      -2.069257      -1.565001       0.000000
Ar       2.346834      -1.089154       0.000000
Ar       0.222423       2.654155       0.000000
           3
         230 total energy  = LJtot + Ttot =  -1.7662351987061178      +  0.84218485093338846      = -0.92405034777272932     
Ar      -2.090025      -1.588468       0.000000
Ar       2.355786      -1.088996       0.000000
Ar       0.234239       2.677464       0.000000
           3
         240 total energy  = LJtot + Ttot =  -1.7116507161397572      +  0.78760016421143830      = -0.92405055192831886     
Ar      -2.109948      -1.611472       0.000000
Ar       2.363767      -1.088307       0.000000
Ar       0.246181       2.699779       0.000000
           3
         250 total energy  = LJtot + Ttot =  -1.6617972961729122      +  0.73774654491186809      = -0.92405075126104408     
Ar      -2.129050      -1.634035       0.000000
Ar       2.370794      -1.087090       0.000000
Ar       0.258256       2.721125       0.000000
           3
         260 total energy  = LJtot + Ttot =  -1.6163664905495172      +  0.69231554967049469      = -0.92405094087902251     
Ar      -2.147358      -1.656176       0.000000
Ar       2.376886      -1.085350       0.000000
Ar       0.270472       2.741526       0.000000
           3
         270 total energy  = LJtot + Ttot =  -1.5750667479594780      +  0.65101562993139783      = -0.92405111802808015     
Ar      -2.164895      -1.677914       0.000000
Ar       2.382061      -1.083090       0.000000
Ar       0.282834       2.761004       0.000000
           3
         280 total energy  = LJtot + Ttot =  -1.5376267964595154      +  0.61357551509938812      = -0.92405128136012726     
Ar      -2.181684      -1.699266       0.000000
Ar       2.386335      -1.080314       0.000000
Ar       0.295348       2.779580       0.000000
           3
         290 total energy  = LJtot + Ttot =  -1.5037971689690126      +  0.57974573853082112      = -0.92405143043819149     
Ar      -2.197745      -1.720248       0.000000
Ar       2.389725      -1.077024       0.000000
Ar       0.308020       2.797272       0.000000
           3
         300 total energy  = LJtot + Ttot =  -1.4733505327956806      +  0.54929896739288375      = -0.92405156540279687     
Ar      -2.213099      -1.740874       0.000000
Ar       2.392246      -1.073224       0.000000
Ar       0.320853       2.814098       0.000000
           3
         310 total energy  = LJtot + Ttot =  -1.4460812684237911      +  0.52202958167530922      = -0.92405168674848193     
Ar      -2.227764      -1.761158       0.000000
Ar       2.393911      -1.068914       0.000000
Ar       0.333852       2.830072       0.000000
           3
         320 total energy  = LJtot + Ttot =  -1.4218045952982976      +  0.49775280012260759      = -0.92405179517569003     
Ar      -2.241757      -1.781111       0.000000
Ar       2.394735      -1.064098       0.000000
Ar       0.347022       2.845210       0.000000
           3
         330 total energy  = LJtot + Ttot =  -1.4003554413118753      +  0.47630354981747325      = -0.92405189149440203     
Ar      -2.255096      -1.800746       0.000000
Ar       2.394730      -1.058776       0.000000
Ar       0.360366       2.859523       0.000000
           3
         340 total energy  = LJtot + Ttot =  -1.3815871833076128      +  0.45753520674413706      = -0.92405197656347571     
Ar      -2.267794      -1.820073       0.000000
Ar       2.393907      -1.052949       0.000000
Ar       0.373887       2.873022       0.000000
           3
         350 total energy  = LJtot + Ttot =  -1.3653703380009508      +  0.44131828674608642      = -0.92405205125486434     
Ar      -2.279866      -1.839100       0.000000
Ar       2.392276      -1.046617       0.000000
Ar       0.387589       2.885717       0.000000
           3
         360 total energy  = LJtot + Ttot =  -1.3515912493347240      +  0.42753913289925088      = -0.92405211643547314     
Ar      -2.291324      -1.857837       0.000000
Ar       2.389848      -1.039780       0.000000
Ar       0.401476       2.897617       0.000000
           3
         370 total energy  = LJtot + Ttot =  -1.3401507945958584      +  0.41609862163393008      = -0.92405217296192832     
Ar      -2.302180      -1.876291       0.000000
Ar       2.386631      -1.032436       0.000000
Ar       0.415549       2.908727       0.000000
           3
         380 total energy  = LJtot + Ttot =  -1.3309631142758147      +  0.40691089259051871      = -0.92405222168529599     
Ar      -2.312445      -1.894469       0.000000
Ar       2.382632      -1.024585       0.000000
Ar       0.429813       2.919054       0.000000
           3
         390 total energy  = LJtot + Ttot =  -1.3239543572547667      +  0.39990209379066427      = -0.92405226346410241     
Ar      -2.322129      -1.912378       0.000000
Ar       2.377859      -1.016225       0.000000
Ar       0.444270       2.928603       0.000000
           3
         400 total energy  = LJtot + Ttot =  -1.3190614216798897      +  0.39500912249489523      = -0.92405229918499443     
Ar      -2.331241      -1.930023       0.000000
Ar       2.372319      -1.007354       0.000000
Ar       0.458922       2.937377       0.000000
           3
         410 total energy  = LJtot + Ttot =  -1.3162306615554509      +  0.39217833176426709      = -0.92405232979118379     
Ar      -2.339789      -1.947409       0.000000
Ar       2.366016      -0.997969       0.000000
Ar       0.473772       2.945378       0.000000
           3
         420 total energy  = LJtot + Ttot =  -1.3154165184900464      +  0.39136416217052367      = -0.92405235631952265     
Ar      -2.347780      -1.964542       0.000000
Ar       2.358957      -0.988068       0.000000
Ar       0.488823       2.952610       0.000000
           3
         430 total energy  = LJtot + Ttot =  -1.3165800263286491      +  0.39252764638096604      = -0.92405237994768308     
Ar      -2.355221      -1.981424       0.000000
Ar       2.351145      -0.977648       0.000000
Ar       0.504077       2.959072       0.000000
           3
         440 total energy  = LJtot + Ttot =  -1.3196871226892561      +  0.39563472063568161      = -0.92405240205357453     
Ar      -2.362119      -1.998060       0.000000
Ar       2.342584      -0.966706       0.000000
Ar       0.519535       2.964766       0.000000
           3
         450 total energy  = LJtot + Ttot =  -1.3247066849256579      +  0.40065426063598397      = -0.92405242428967393     
Ar      -2.368478      -2.014452       0.000000
Ar       2.333279      -0.955238       0.000000
Ar       0.535199       2.969691       0.000000
           3
         460 total energy  = LJtot + Ttot =  -1.3316081879981456      +  0.40755573932252870      = -0.92405244867561698     
Ar      -2.374303      -2.030604       0.000000
Ar       2.323232      -0.943243       0.000000
Ar       0.551071       2.973847       0.000000
           3
         470 total energy  = LJtot + Ttot =  -1.3403588575085976      +  0.41630637979588170      = -0.92405247771271593     
Ar      -2.379597      -2.046516       0.000000
Ar       2.312446      -0.930718       0.000000
Ar       0.567151       2.977234       0.000000
           3
         480 total energy  = LJtot + Ttot =  -1.3509201623536917      +  0.42686764782941211      = -0.92405251452427961     
Ar      -2.384365      -2.062190       0.000000
Ar       2.300925      -0.917662       0.000000
Ar       0.583440       2.979852       0.000000
           3
         490 total energy  = LJtot + Ttot =  -1.3632434582113024      +  0.43919089518625515      = -0.92405256302504735     
Ar      -2.388609      -2.077629       0.000000
Ar       2.288671      -0.904073       0.000000
Ar       0.599938       2.981702       0.000000
           3
         500 total energy  = LJtot + Ttot =  -1.3772645565804140      +  0.45321192845907399      = -0.92405262812134004     
Ar      -2.392331      -2.092831       0.000000
Ar       2.275688      -0.889952       0.000000
Ar       0.616642       2.982784       0.000000
           3
         510 total energy  = LJtot + Ttot =  -1.3928969574207004      +  0.46884424148104120      = -0.92405271593965921     
Ar      -2.395533      -2.107799       0.000000
Ar       2.261980      -0.875303       0.000000
Ar       0.633553       2.983102       0.000000
           3
         520 total energy  = LJtot + Ttot =  -1.4100234529676816      +  0.48597061889382070      = -0.92405283407386096     
Ar      -2.398215      -2.122531       0.000000
Ar       2.247551      -0.860130       0.000000
Ar       0.650665       2.982661       0.000000
           3
         530 total energy  = LJtot + Ttot =  -1.4284857979609291      +  0.50443280613348951      = -0.92405299182743961     
Ar      -2.400380      -2.137027       0.000000
Ar       2.232405      -0.844442       0.000000
Ar       0.667974       2.981470       0.000000
           3
         540 total energy  = LJtot + Ttot =  -1.4480721682092945      +  0.52401896780504953      = -0.92405320040424499     
Ar      -2.402026      -2.151287       0.000000
Ar       2.216551      -0.828252       0.000000
Ar       0.685474       2.979539       0.000000
           3
         550 total energy  = LJtot + Ttot =  -1.4685022299728718      +  0.54444875700951634      = -0.92405347296335549     
Ar      -2.403153      -2.165308       0.000000
Ar       2.199997      -0.811578       0.000000
Ar       0.703156       2.976887       0.000000
           3
         560 total energy  = LJtot + Ttot =  -1.4894098726339788      +  0.56535604823834062      = -0.92405382439563821     
Ar      -2.403761      -2.179090       0.000000
Ar       2.182753      -0.794446       0.000000
Ar       0.721008       2.973536       0.000000
           3
         570 total energy  = LJtot + Ttot =  -1.5103241010096229      +  0.58626983041483627      = -0.92405427059478662     
Ar      -2.403848      -2.192630       0.000000
Ar       2.164833      -0.776891       0.000000
Ar       0.739015       2.969521       0.000000
           3
         580 total energy  = LJtot + Ttot =  -1.5306493622643944      +  0.60659453538278429      = -0.92405482688161011     
Ar      -2.403413      -2.205926       0.000000
Ar       2.146254      -0.758957       0.000000
Ar       0.757159       2.964883       0.000000
           3
         590 total energy  = LJtot + Ttot =  -1.5496478541301362      +  0.62559234902374616      = -0.92405550510639001     
Ar      -2.402453      -2.218975       0.000000
Ar       2.127038      -0.740705       0.000000
Ar       0.775416       2.959680       0.000000
           3
         600 total energy  = LJtot + Ttot =  -1.5664283042064304      +  0.64237199536837086      = -0.92405630883805956     
Ar      -2.400966      -2.231774       0.000000
Ar       2.107210      -0.722211       0.000000
Ar       0.793757       2.953985       0.000000
           3
         610 total energy  = LJtot + Ttot =  -1.5799484611683474      +  0.65589123512349268      = -0.92405722604485474     
Ar      -2.398950      -2.244319       0.000000
Ar       2.086803      -0.703573       0.000000
Ar       0.812146       2.947892       0.000000
           3
         620 total energy  = LJtot + Ttot =  -1.5890420478012479      +  0.66498382883239193      = -0.92405821896885598     
Ar      -2.396399      -2.256606       0.000000
Ar       2.065857      -0.684914       0.000000
Ar       0.830542       2.941521       0.000000
           3
         630 total energy  = LJtot + Ttot =  -1.5924846753672752      +  0.66842546355584032      = -0.92405921181143491     
Ar      -2.393312      -2.268632       0.000000
Ar       2.044418      -0.666385       0.000000
Ar       0.848894       2.935017       0.000000
           3
         640 total energy  = LJtot + Ttot =  -1.5891157740158304      +  0.66505569523471364      = -0.92406007878111673     
Ar      -2.389683      -2.280391       0.000000
Ar       2.022541      -0.648172       0.000000
Ar       0.867142       2.928563       0.000000
           3
         650 total energy  = LJtot + Ttot =  -1.5780320617560042      +  0.65397142348901671      = -0.92406063826698748     
Ar      -2.385509      -2.291879       0.000000
Ar       2.000290      -0.630496       0.000000
Ar       0.885219       2.922375       0.000000
           3
         660 total energy  = LJtot + Ttot =  -1.5588578424555817      +  0.63479717955960269      = -0.92406066289597899     
Ar      -2.380784      -2.303091       0.000000
Ar       1.977735      -0.613618       0.000000
Ar       0.903049       2.916708       0.000000
           3
         670 total energy  = LJtot + Ttot =  -1.5320730676913341      +  0.60801314992981059      = -0.92405991776152352     
Ar      -2.375503      -2.314020       0.000000
Ar       1.954953      -0.597833       0.000000
Ar       0.920550       2.911853       0.000000
           3
         680 total energy  = LJtot + Ttot =  -1.4993388336703646      +  0.57528059827441158      = -0.92405823539595300     
Ar      -2.369660      -2.324662       0.000000
Ar       1.932023      -0.583471       0.000000
Ar       0.937637       2.908133       0.000000
           3
         690 total energy  = LJtot + Ttot =  -1.4637084918622518      +  0.53965287168802023      = -0.92405562017423160     
Ar      -2.363250      -2.335010       0.000000
Ar       1.909024      -0.570878       0.000000
Ar       0.954226       2.905888       0.000000
           3
         700 total energy  = LJtot + Ttot =  -1.4295747284052713      +  0.50552238260214866      = -0.92405234580312268     
Ar      -2.356265      -2.345059       0.000000
Ar       1.886025      -0.560403       0.000000
Ar       0.970240       2.905461       0.000000
           3
         710 total energy  = LJtot + Ttot =  -1.4022197540528265      +  0.47817077293123689      = -0.92404898112158962     
Ar      -2.348698      -2.354802       0.000000
Ar       1.863084      -0.552369       0.000000
Ar       0.985614       2.907171       0.000000
           3
         720 total energy  = LJtot + Ttot =  -1.3869442184663114      +  0.46289793590814871      = -0.92404628255816279     
Ar      -2.340542      -2.364233       0.000000
Ar       1.840235      -0.547052       0.000000
Ar       1.000307       2.911285       0.000000
           3
         730 total energy  = LJtot + Ttot =  -1.3879412172651100      +  0.46389626485114721      = -0.92404495241396278     
Ar      -2.331789      -2.373346       0.000000
Ar       1.817488      -0.544643       0.000000
Ar       1.014301       2.917989       0.000000
           3
         740 total energy  = LJtot + Ttot =  -1.4072666621916055      +  0.48322130195747803      = -0.92404536023412742     
Ar      -2.322429      -2.382134       0.000000
Ar       1.794825      -0.545237       0.000000
Ar       1.027604       2.927371       0.000000
           3
         750 total energy  = LJtot + Ttot =  -1.4443020055977054      +  0.52025462396122768      = -0.92404738163647770     
Ar      -2.312454      -2.390592       0.000000
Ar       1.772199      -0.548814       0.000000
Ar       1.040255       2.939406       0.000000
           3
         760 total energy  = LJtot + Ttot =  -1.4959359098393259      +  0.57188545460606210      = -0.92405045523326379     
Ar      -2.301854      -2.398713       0.000000
Ar       1.749541      -0.555247       0.000000
Ar       1.052313       2.953960       0.000000
           3
         770 total energy  = LJtot + Ttot =  -1.5573845060086855      +  0.63333068455802000      = -0.92405382145066550     
Ar      -2.290618      -2.406491       0.000000
Ar       1.726764      -0.564313       0.000000
Ar       1.063853       2.970804       0.000000
           3
         780 total energy  = LJtot + Ttot =  -1.6233125650402016      +  0.69925576416028390      = -0.92405680087991771     
Ar      -2.278737      -2.413921       0.000000
Ar       1.703777      -0.575724       0.000000
Ar       1.074959       2.989645       0.000000
           3
         790 total energy  = LJtot + Ttot =  -1.6888565208542150      +  0.76479754537625544      = -0.92405897547795957     
Ar      -2.266201      -2.420998       0.000000
Ar       1.680486      -0.589148       0.000000
Ar       1.085714       3.010146       0.000000
           3
         800 total energy  = LJtot + Ttot =  -1.7502810474675550      +  0.82622082235614158      = -0.92406022511141339     
Ar      -2.253001      -2.427716       0.000000
Ar       1.656804      -0.604242       0.000000
Ar       1.096197       3.031958       0.000000
           3
         810 total energy  = LJtot + Ttot =  -1.8052041482646117      +  0.88114349018935001      = -0.92406065807526172     
Ar      -2.239131      -2.434073       0.000000
Ar       1.632655      -0.620669       0.000000
Ar       1.106477       3.054742       0.000000
           3
         820 total energy  = LJtot + Ttot =  -1.8524807475926819      +  0.92842024273001145      = -0.92406050486267044     
Ar      -2.224587      -2.440066       0.000000
Ar       1.607975      -0.638117       0.000000
Ar       1.116611       3.078182       0.000000
           3
         830 total energy  = LJtot + Ttot =  -1.8918941484784351      +  0.96783412108690048      = -0.92406002739153459     
Ar      -2.209367      -2.445694       0.000000
Ar       1.582720      -0.656305       0.000000
Ar       1.126647       3.101999       0.000000
           3
         840 total energy  = LJtot + Ttot =  -1.9237882825837520      +  0.99972881837970773      = -0.92405946420404428     
Ar      -2.193478      -2.450960       0.000000
Ar       1.556858      -0.674990       0.000000
Ar       1.136620       3.125950       0.000000
           3
         850 total energy  = LJtot + Ttot =  -1.9487247924961295      +   1.0246657834852804      = -0.92405900901084914     
Ar      -2.176931      -2.455870       0.000000
Ar       1.530375      -0.693960       0.000000
Ar       1.146556       3.149830       0.000000
           3
         860 total energy  = LJtot + Ttot =  -1.9672012913337431      +   1.0431424808179262      = -0.92405881051581695     
Ar      -2.159750      -2.460434       0.000000
Ar       1.503278      -0.713038       0.000000
Ar       1.156472       3.173472       0.000000
           3
         870 total energy  = LJtot + Ttot =  -1.9794355365717093      +   1.0553765554653456      = -0.92405898110636375     
Ar      -2.141973      -2.464670       0.000000
Ar       1.475593      -0.732070       0.000000
Ar       1.166380       3.196740       0.000000
           3
         880 total energy  = LJtot + Ttot =  -1.9852063412746483      +   1.0611467363973861      = -0.92405960487726224     
Ar      -2.123656      -2.468605       0.000000
Ar       1.447369      -0.750922       0.000000
Ar       1.176287       3.219527       0.000000
           3
         890 total energy  = LJtot + Ttot =  -1.9837422053225213      +   1.0596814672900381      = -0.92406073803248323     
Ar      -2.104881      -2.472277       0.000000
Ar       1.418687      -0.769473       0.000000
Ar       1.186194       3.241750       0.000000
           3
         900 total energy  = LJtot + Ttot =  -1.9736592179326662      +   1.0495968220434735      = -0.92406239588919270     
Ar      -2.085759      -2.475740       0.000000
Ar       1.389658      -0.787605       0.000000
Ar       1.196101       3.263345       0.000000
           3
         910 total energy  = LJtot + Ttot =  -1.9529687618394185      +   1.0289042406525140      = -0.92406452118690452     
Ar      -2.066445      -2.479069       0.000000
Ar       1.360439      -0.805197       0.000000
Ar       1.206006       3.284266       0.000000
           3
         920 total energy  = LJtot + Ttot =  -1.9192016118572917      +  0.99513468133050820      = -0.92406693052678346     
Ar      -2.047140      -2.482363       0.000000
Ar       1.331237      -0.822116       0.000000
Ar       1.215903       3.304479       0.000000
           3
         930 total energy  = LJtot + Ttot =  -1.8697240379307249      +  0.94565479397985097      = -0.92406924395087398     
Ar      -2.028109      -2.485752       0.000000
Ar       1.302321      -0.838210       0.000000
Ar       1.225788       3.323961       0.000000
           3
         940 total energy  = LJtot + Ttot =  -1.8023402220210518      +  0.87826939893516709      = -0.92407082308588473     
Ar      -2.009686      -2.489402       0.000000
Ar       1.274030      -0.853297       0.000000
Ar       1.235656       3.342699       0.000000
           3
         950 total energy  = LJtot + Ttot =  -1.7162531002628978      +  0.79218232103991304      = -0.92407077922298475     
Ar      -1.992279      -2.493520       0.000000
Ar       1.246779      -0.867164       0.000000
Ar       1.245500       3.360685       0.000000
           3
         960 total energy  = LJtot + Ttot =  -1.6133423461199818      +  0.68927419556517988      = -0.92406815055480196     
Ar      -1.976371      -2.498354       0.000000
Ar       1.221055      -0.879562       0.000000
Ar       1.255315       3.377915       0.000000
           3
         970 total energy  = LJtot + Ttot =  -1.4994672581739090      +  0.57540492252312836      = -0.92406233565078066     
Ar      -1.962503      -2.504183       0.000000
Ar       1.197406      -0.890209       0.000000
Ar       1.265097       3.394393       0.000000
           3
         980 total energy  = LJtot + Ttot =  -1.3851475716185144      +  0.46109384920035679      = -0.92405372241815764     
Ar      -1.951245      -2.511309       0.000000
Ar       1.176405      -0.898811       0.000000
Ar       1.274839       3.410120       0.000000
           3
         990 total energy  = LJtot + Ttot =  -1.2847418351739834      +  0.36069768572371508      = -0.92404414945026836     
Ar      -1.943140      -2.520026       0.000000
Ar       1.158601      -0.905078       0.000000
Ar       1.284539       3.425104       0.000000
           3
        1000 total energy  = LJtot + Ttot =  -1.2135449230677964      +  0.28950830614209933      = -0.92403661692569705     
Ar      -1.938644      -2.530587       0.000000
Ar       1.144452      -0.908763       0.000000
Ar       1.294191       3.439350       0.000000
